 TITLE = "DIFFUSION 2D - FD"
 VARIABLES = "X" "Y" "C" "ERR"
  ZONE F=POINT, I=         101 , J=          101
   -4.00000000   -4.00000000    0.00000003    0.00000000
   -3.92000000   -4.00000000    0.00000005    0.00000000
   -3.84000000   -4.00000000    0.00000007    0.00000000
   -3.76000000   -4.00000000    0.00000012    0.00000000
   -3.68000000   -4.00000000    0.00000018    0.00000000
   -3.60000000   -4.00000000    0.00000027    0.00000000
   -3.52000000   -4.00000000    0.00000041    0.00000000
   -3.44000000   -4.00000000    0.00000061    0.00000000
   -3.36000000   -4.00000000    0.00000090    0.00000000
   -3.28000000   -4.00000000    0.00000130    0.00000000
   -3.20000000   -4.00000000    0.00000186    0.00000000
   -3.12000000   -4.00000000    0.00000263    0.00000000
   -3.04000000   -4.00000000    0.00000367    0.00000000
   -2.96000000   -4.00000000    0.00000506    0.00000000
   -2.88000000   -4.00000000    0.00000688    0.00000000
   -2.80000000   -4.00000000    0.00000923    0.00000000
   -2.72000000   -4.00000000    0.00001223    0.00000000
   -2.64000000   -4.00000000    0.00001601    0.00000000
   -2.56000000   -4.00000000    0.00002068    0.00000000
   -2.48000000   -4.00000000    0.00002637    0.00000000
   -2.40000000   -4.00000000    0.00003320    0.00000000
   -2.32000000   -4.00000000    0.00004127    0.00000000
   -2.24000000   -4.00000000    0.00005065    0.00000000
   -2.16000000   -4.00000000    0.00006137    0.00000000
   -2.08000000   -4.00000000    0.00007342    0.00000000
   -2.00000000   -4.00000000    0.00008671    0.00000000
   -1.92000000   -4.00000000    0.00010110    0.00000000
   -1.84000000   -4.00000000    0.00011639    0.00000000
   -1.76000000   -4.00000000    0.00013228    0.00000000
   -1.68000000   -4.00000000    0.00014843    0.00000000
   -1.60000000   -4.00000000    0.00016444    0.00000000
   -1.52000000   -4.00000000    0.00017985    0.00000000
   -1.44000000   -4.00000000    0.00019421    0.00000000
   -1.36000000   -4.00000000    0.00020705    0.00000000
   -1.28000000   -4.00000000    0.00021792    0.00000000
   -1.20000000   -4.00000000    0.00022645    0.00000000
   -1.12000000   -4.00000000    0.00023233    0.00000000
   -1.04000000   -4.00000000    0.00023532    0.00000000
   -0.96000000   -4.00000000    0.00023532    0.00000000
   -0.88000000   -4.00000000    0.00023233    0.00000000
   -0.80000000   -4.00000000    0.00022645    0.00000000
   -0.72000000   -4.00000000    0.00021792    0.00000000
   -0.64000000   -4.00000000    0.00020705    0.00000000
   -0.56000000   -4.00000000    0.00019421    0.00000000
   -0.48000000   -4.00000000    0.00017985    0.00000000
   -0.40000000   -4.00000000    0.00016444    0.00000000
   -0.32000000   -4.00000000    0.00014843    0.00000000
   -0.24000000   -4.00000000    0.00013228    0.00000000
   -0.16000000   -4.00000000    0.00011639    0.00000000
   -0.08000000   -4.00000000    0.00010110    0.00000000
    0.00000000   -4.00000000    0.00008671    0.00000000
    0.08000000   -4.00000000    0.00007342    0.00000000
    0.16000000   -4.00000000    0.00006137    0.00000000
    0.24000000   -4.00000000    0.00005065    0.00000000
    0.32000000   -4.00000000    0.00004127    0.00000000
    0.40000000   -4.00000000    0.00003320    0.00000000
    0.48000000   -4.00000000    0.00002637    0.00000000
    0.56000000   -4.00000000    0.00002068    0.00000000
    0.64000000   -4.00000000    0.00001601    0.00000000
    0.72000000   -4.00000000    0.00001223    0.00000000
    0.80000000   -4.00000000    0.00000923    0.00000000
    0.88000000   -4.00000000    0.00000688    0.00000000
    0.96000000   -4.00000000    0.00000506    0.00000000
    1.04000000   -4.00000000    0.00000367    0.00000000
    1.12000000   -4.00000000    0.00000263    0.00000000
    1.20000000   -4.00000000    0.00000186    0.00000000
    1.28000000   -4.00000000    0.00000130    0.00000000
    1.36000000   -4.00000000    0.00000090    0.00000000
    1.44000000   -4.00000000    0.00000061    0.00000000
    1.52000000   -4.00000000    0.00000041    0.00000000
    1.60000000   -4.00000000    0.00000027    0.00000000
    1.68000000   -4.00000000    0.00000018    0.00000000
    1.76000000   -4.00000000    0.00000012    0.00000000
    1.84000000   -4.00000000    0.00000007    0.00000000
    1.92000000   -4.00000000    0.00000005    0.00000000
    2.00000000   -4.00000000    0.00000003    0.00000000
    2.08000000   -4.00000000    0.00000002    0.00000000
    2.16000000   -4.00000000    0.00000001    0.00000000
    2.24000000   -4.00000000    0.00000001    0.00000000
    2.32000000   -4.00000000    0.00000000    0.00000000
    2.40000000   -4.00000000    0.00000000    0.00000000
    2.48000000   -4.00000000    0.00000000    0.00000000
    2.56000000   -4.00000000    0.00000000    0.00000000
    2.64000000   -4.00000000    0.00000000    0.00000000
    2.72000000   -4.00000000    0.00000000    0.00000000
    2.80000000   -4.00000000    0.00000000    0.00000000
    2.88000000   -4.00000000    0.00000000    0.00000000
    2.96000000   -4.00000000    0.00000000    0.00000000
    3.04000000   -4.00000000    0.00000000    0.00000000
    3.12000000   -4.00000000    0.00000000    0.00000000
    3.20000000   -4.00000000    0.00000000    0.00000000
    3.28000000   -4.00000000    0.00000000    0.00000000
    3.36000000   -4.00000000    0.00000000    0.00000000
    3.44000000   -4.00000000    0.00000000    0.00000000
    3.52000000   -4.00000000    0.00000000    0.00000000
    3.60000000   -4.00000000    0.00000000    0.00000000
    3.68000000   -4.00000000    0.00000000    0.00000000
    3.76000000   -4.00000000    0.00000000    0.00000000
    3.84000000   -4.00000000    0.00000000    0.00000000
    3.92000000   -4.00000000    0.00000000    0.00000000
    4.00000000   -4.00000000    0.00000000    0.00000000
   -4.00000000   -3.92000000    0.00000005    0.00000000
   -3.92000000   -3.92000000    0.00000008    0.00000000
   -3.84000000   -3.92000000    0.00000012    0.00000000
   -3.76000000   -3.92000000    0.00000019    0.00000000
   -3.68000000   -3.92000000    0.00000029    0.00000000
   -3.60000000   -3.92000000    0.00000044    0.00000000
   -3.52000000   -3.92000000    0.00000066    0.00000000
   -3.44000000   -3.92000000    0.00000098    0.00000000
   -3.36000000   -3.92000000    0.00000144    0.00000000
   -3.28000000   -3.92000000    0.00000209    0.00000000
   -3.20000000   -3.92000000    0.00000299    0.00000000
   -3.12000000   -3.92000000    0.00000423    0.00000000
   -3.04000000   -3.92000000    0.00000590    0.00000000
   -2.96000000   -3.92000000    0.00000812    0.00000000
   -2.88000000   -3.92000000    0.00001104    0.00000000
   -2.80000000   -3.92000000    0.00001482    0.00000000
   -2.72000000   -3.92000000    0.00001964    0.00000000
   -2.64000000   -3.92000000    0.00002570    0.00000000
   -2.56000000   -3.92000000    0.00003320    0.00000000
   -2.48000000   -3.92000000    0.00004234    0.00000000
   -2.40000000   -3.92000000    0.00005331    0.00000000
   -2.32000000   -3.92000000    0.00006627    0.00000000
   -2.24000000   -3.92000000    0.00008133    0.00000000
   -2.16000000   -3.92000000    0.00009855    0.00000000
   -2.08000000   -3.92000000    0.00011789    0.00000000
   -2.00000000   -3.92000000    0.00013923    0.00000000
   -1.92000000   -3.92000000    0.00016235    0.00000000
   -1.84000000   -3.92000000    0.00018689    0.00000000
   -1.76000000   -3.92000000    0.00021241    0.00000000
   -1.68000000   -3.92000000    0.00023835    0.00000000
   -1.60000000   -3.92000000    0.00026405    0.00000000
   -1.52000000   -3.92000000    0.00028880    0.00000000
   -1.44000000   -3.92000000    0.00031186    0.00000000
   -1.36000000   -3.92000000    0.00033247    0.00000000
   -1.28000000   -3.92000000    0.00034993    0.00000000
   -1.20000000   -3.92000000    0.00036363    0.00000000
   -1.12000000   -3.92000000    0.00037306    0.00000000
   -1.04000000   -3.92000000    0.00037787    0.00000000
   -0.96000000   -3.92000000    0.00037787    0.00000000
   -0.88000000   -3.92000000    0.00037306    0.00000000
   -0.80000000   -3.92000000    0.00036363    0.00000000
   -0.72000000   -3.92000000    0.00034993    0.00000000
   -0.64000000   -3.92000000    0.00033247    0.00000000
   -0.56000000   -3.92000000    0.00031186    0.00000000
   -0.48000000   -3.92000000    0.00028880    0.00000000
   -0.40000000   -3.92000000    0.00026405    0.00000000
   -0.32000000   -3.92000000    0.00023835    0.00000000
   -0.24000000   -3.92000000    0.00021241    0.00000000
   -0.16000000   -3.92000000    0.00018689    0.00000000
   -0.08000000   -3.92000000    0.00016235    0.00000000
    0.00000000   -3.92000000    0.00013923    0.00000000
    0.08000000   -3.92000000    0.00011789    0.00000000
    0.16000000   -3.92000000    0.00009855    0.00000000
    0.24000000   -3.92000000    0.00008133    0.00000000
    0.32000000   -3.92000000    0.00006627    0.00000000
    0.40000000   -3.92000000    0.00005331    0.00000000
    0.48000000   -3.92000000    0.00004234    0.00000000
    0.56000000   -3.92000000    0.00003320    0.00000000
    0.64000000   -3.92000000    0.00002570    0.00000000
    0.72000000   -3.92000000    0.00001964    0.00000000
    0.80000000   -3.92000000    0.00001482    0.00000000
    0.88000000   -3.92000000    0.00001104    0.00000000
    0.96000000   -3.92000000    0.00000812    0.00000000
    1.04000000   -3.92000000    0.00000590    0.00000000
    1.12000000   -3.92000000    0.00000423    0.00000000
    1.20000000   -3.92000000    0.00000299    0.00000000
    1.28000000   -3.92000000    0.00000209    0.00000000
    1.36000000   -3.92000000    0.00000144    0.00000000
    1.44000000   -3.92000000    0.00000098    0.00000000
    1.52000000   -3.92000000    0.00000066    0.00000000
    1.60000000   -3.92000000    0.00000044    0.00000000
    1.68000000   -3.92000000    0.00000029    0.00000000
    1.76000000   -3.92000000    0.00000019    0.00000000
    1.84000000   -3.92000000    0.00000012    0.00000000
    1.92000000   -3.92000000    0.00000008    0.00000000
    2.00000000   -3.92000000    0.00000005    0.00000000
    2.08000000   -3.92000000    0.00000003    0.00000000
    2.16000000   -3.92000000    0.00000002    0.00000000
    2.24000000   -3.92000000    0.00000001    0.00000000
    2.32000000   -3.92000000    0.00000001    0.00000000
    2.40000000   -3.92000000    0.00000000    0.00000000
    2.48000000   -3.92000000    0.00000000    0.00000000
    2.56000000   -3.92000000    0.00000000    0.00000000
    2.64000000   -3.92000000    0.00000000    0.00000000
    2.72000000   -3.92000000    0.00000000    0.00000000
    2.80000000   -3.92000000    0.00000000    0.00000000
    2.88000000   -3.92000000    0.00000000    0.00000000
    2.96000000   -3.92000000    0.00000000    0.00000000
    3.04000000   -3.92000000    0.00000000    0.00000000
    3.12000000   -3.92000000    0.00000000    0.00000000
    3.20000000   -3.92000000    0.00000000    0.00000000
    3.28000000   -3.92000000    0.00000000    0.00000000
    3.36000000   -3.92000000    0.00000000    0.00000000
    3.44000000   -3.92000000    0.00000000    0.00000000
    3.52000000   -3.92000000    0.00000000    0.00000000
    3.60000000   -3.92000000    0.00000000    0.00000000
    3.68000000   -3.92000000    0.00000000    0.00000000
    3.76000000   -3.92000000    0.00000000    0.00000000
    3.84000000   -3.92000000    0.00000000    0.00000000
    3.92000000   -3.92000000    0.00000000    0.00000000
    4.00000000   -3.92000000    0.00000000    0.00000000
   -4.00000000   -3.84000000    0.00000007    0.00000000
   -3.92000000   -3.84000000    0.00000012    0.00000000
   -3.84000000   -3.84000000    0.00000019    0.00000000
   -3.76000000   -3.84000000    0.00000030    0.00000000
   -3.68000000   -3.84000000    0.00000046    0.00000000
   -3.60000000   -3.84000000    0.00000070    0.00000000
   -3.52000000   -3.84000000    0.00000105    0.00000000
   -3.44000000   -3.84000000    0.00000156    0.00000000
   -3.36000000   -3.84000000    0.00000229    0.00000000
   -3.28000000   -3.84000000    0.00000332    0.00000000
   -3.20000000   -3.84000000    0.00000474    0.00000000
   -3.12000000   -3.84000000    0.00000670    0.00000000
   -3.04000000   -3.84000000    0.00000935    0.00000000
   -2.96000000   -3.84000000    0.00001288    0.00000000
   -2.88000000   -3.84000000    0.00001751    0.00000000
   -2.80000000   -3.84000000    0.00002350    0.00000000
   -2.72000000   -3.84000000    0.00003114    0.00000000
   -2.64000000   -3.84000000    0.00004075    0.00000000
   -2.56000000   -3.84000000    0.00005263    0.00000000
   -2.48000000   -3.84000000    0.00006712    0.00000000
   -2.40000000   -3.84000000    0.00008452    0.00000000
   -2.32000000   -3.84000000    0.00010506    0.00000000
   -2.24000000   -3.84000000    0.00012894    0.00000000
   -2.16000000   -3.84000000    0.00015623    0.00000000
   -2.08000000   -3.84000000    0.00018689    0.00000000
   -2.00000000   -3.84000000    0.00022073    0.00000000
   -1.92000000   -3.84000000    0.00025738    0.00000000
   -1.84000000   -3.84000000    0.00029629    0.00000000
   -1.76000000   -3.84000000    0.00033675    0.00000000
   -1.68000000   -3.84000000    0.00037787    0.00000000
   -1.60000000   -3.84000000    0.00041861    0.00000000
   -1.52000000   -3.84000000    0.00045785    0.00000000
   -1.44000000   -3.84000000    0.00049440    0.00000000
   -1.36000000   -3.84000000    0.00052707    0.00000000
   -1.28000000   -3.84000000    0.00055476    0.00000000
   -1.20000000   -3.84000000    0.00057648    0.00000000
   -1.12000000   -3.84000000    0.00059143    0.00000000
   -1.04000000   -3.84000000    0.00059905    0.00000000
   -0.96000000   -3.84000000    0.00059905    0.00000000
   -0.88000000   -3.84000000    0.00059143    0.00000000
   -0.80000000   -3.84000000    0.00057648    0.00000000
   -0.72000000   -3.84000000    0.00055476    0.00000000
   -0.64000000   -3.84000000    0.00052707    0.00000000
   -0.56000000   -3.84000000    0.00049440    0.00000000
   -0.48000000   -3.84000000    0.00045785    0.00000000
   -0.40000000   -3.84000000    0.00041861    0.00000000
   -0.32000000   -3.84000000    0.00037787    0.00000000
   -0.24000000   -3.84000000    0.00033675    0.00000000
   -0.16000000   -3.84000000    0.00029629    0.00000000
   -0.08000000   -3.84000000    0.00025738    0.00000000
    0.00000000   -3.84000000    0.00022073    0.00000000
    0.08000000   -3.84000000    0.00018689    0.00000000
    0.16000000   -3.84000000    0.00015623    0.00000000
    0.24000000   -3.84000000    0.00012894    0.00000000
    0.32000000   -3.84000000    0.00010506    0.00000000
    0.40000000   -3.84000000    0.00008452    0.00000000
    0.48000000   -3.84000000    0.00006712    0.00000000
    0.56000000   -3.84000000    0.00005263    0.00000000
    0.64000000   -3.84000000    0.00004075    0.00000000
    0.72000000   -3.84000000    0.00003114    0.00000000
    0.80000000   -3.84000000    0.00002350    0.00000000
    0.88000000   -3.84000000    0.00001751    0.00000000
    0.96000000   -3.84000000    0.00001288    0.00000000
    1.04000000   -3.84000000    0.00000935    0.00000000
    1.12000000   -3.84000000    0.00000670    0.00000000
    1.20000000   -3.84000000    0.00000474    0.00000000
    1.28000000   -3.84000000    0.00000332    0.00000000
    1.36000000   -3.84000000    0.00000229    0.00000000
    1.44000000   -3.84000000    0.00000156    0.00000000
    1.52000000   -3.84000000    0.00000105    0.00000000
    1.60000000   -3.84000000    0.00000070    0.00000000
    1.68000000   -3.84000000    0.00000046    0.00000000
    1.76000000   -3.84000000    0.00000030    0.00000000
    1.84000000   -3.84000000    0.00000019    0.00000000
    1.92000000   -3.84000000    0.00000012    0.00000000
    2.00000000   -3.84000000    0.00000007    0.00000000
    2.08000000   -3.84000000    0.00000005    0.00000000
    2.16000000   -3.84000000    0.00000003    0.00000000
    2.24000000   -3.84000000    0.00000002    0.00000000
    2.32000000   -3.84000000    0.00000001    0.00000000
    2.40000000   -3.84000000    0.00000001    0.00000000
    2.48000000   -3.84000000    0.00000000    0.00000000
    2.56000000   -3.84000000    0.00000000    0.00000000
    2.64000000   -3.84000000    0.00000000    0.00000000
    2.72000000   -3.84000000    0.00000000    0.00000000
    2.80000000   -3.84000000    0.00000000    0.00000000
    2.88000000   -3.84000000    0.00000000    0.00000000
    2.96000000   -3.84000000    0.00000000    0.00000000
    3.04000000   -3.84000000    0.00000000    0.00000000
    3.12000000   -3.84000000    0.00000000    0.00000000
    3.20000000   -3.84000000    0.00000000    0.00000000
    3.28000000   -3.84000000    0.00000000    0.00000000
    3.36000000   -3.84000000    0.00000000    0.00000000
    3.44000000   -3.84000000    0.00000000    0.00000000
    3.52000000   -3.84000000    0.00000000    0.00000000
    3.60000000   -3.84000000    0.00000000    0.00000000
    3.68000000   -3.84000000    0.00000000    0.00000000
    3.76000000   -3.84000000    0.00000000    0.00000000
    3.84000000   -3.84000000    0.00000000    0.00000000
    3.92000000   -3.84000000    0.00000000    0.00000000
    4.00000000   -3.84000000    0.00000000    0.00000000
   -4.00000000   -3.76000000    0.00000012    0.00000000
   -3.92000000   -3.76000000    0.00000019    0.00000000
   -3.84000000   -3.76000000    0.00000030    0.00000000
   -3.76000000   -3.76000000    0.00000046    0.00000000
   -3.68000000   -3.76000000    0.00000071    0.00000000
   -3.60000000   -3.76000000    0.00000109    0.00000000
   -3.52000000   -3.76000000    0.00000164    0.00000000
   -3.44000000   -3.76000000    0.00000244    0.00000000
   -3.36000000   -3.76000000    0.00000358    0.00000000
   -3.28000000   -3.76000000    0.00000519    0.00000000
   -3.20000000   -3.76000000    0.00000743    0.00000000
   -3.12000000   -3.76000000    0.00001049    0.00000000
   -3.04000000   -3.76000000    0.00001463    0.00000000
   -2.96000000   -3.76000000    0.00002015    0.00000000
   -2.88000000   -3.76000000    0.00002740    0.00000000
   -2.80000000   -3.76000000    0.00003678    0.00000000
   -2.72000000   -3.76000000    0.00004874    0.00000000
   -2.64000000   -3.76000000    0.00006377    0.00000000
   -2.56000000   -3.76000000    0.00008238    0.00000000
   -2.48000000   -3.76000000    0.00010506    0.00000000
   -2.40000000   -3.76000000    0.00013228    0.00000000
   -2.32000000   -3.76000000    0.00016444    0.00000000
   -2.24000000   -3.76000000    0.00020181    0.00000000
   -2.16000000   -3.76000000    0.00024453    0.00000000
   -2.08000000   -3.76000000    0.00029252    0.00000000
   -2.00000000   -3.76000000    0.00034548    0.00000000
   -1.92000000   -3.76000000    0.00040284    0.00000000
   -1.84000000   -3.76000000    0.00046375    0.00000000
   -1.76000000   -3.76000000    0.00052707    0.00000000
   -1.68000000   -3.76000000    0.00059143    0.00000000
   -1.60000000   -3.76000000    0.00065520    0.00000000
   -1.52000000   -3.76000000    0.00071662    0.00000000
   -1.44000000   -3.76000000    0.00077382    0.00000000
   -1.36000000   -3.76000000    0.00082496    0.00000000
   -1.28000000   -3.76000000    0.00086830    0.00000000
   -1.20000000   -3.76000000    0.00090229    0.00000000
   -1.12000000   -3.76000000    0.00092569    0.00000000
   -1.04000000   -3.76000000    0.00093762    0.00000000
   -0.96000000   -3.76000000    0.00093762    0.00000000
   -0.88000000   -3.76000000    0.00092569    0.00000000
   -0.80000000   -3.76000000    0.00090229    0.00000000
   -0.72000000   -3.76000000    0.00086830    0.00000000
   -0.64000000   -3.76000000    0.00082496    0.00000000
   -0.56000000   -3.76000000    0.00077382    0.00000000
   -0.48000000   -3.76000000    0.00071662    0.00000000
   -0.40000000   -3.76000000    0.00065520    0.00000000
   -0.32000000   -3.76000000    0.00059143    0.00000000
   -0.24000000   -3.76000000    0.00052707    0.00000000
   -0.16000000   -3.76000000    0.00046375    0.00000000
   -0.08000000   -3.76000000    0.00040284    0.00000000
    0.00000000   -3.76000000    0.00034548    0.00000000
    0.08000000   -3.76000000    0.00029252    0.00000000
    0.16000000   -3.76000000    0.00024453    0.00000000
    0.24000000   -3.76000000    0.00020181    0.00000000
    0.32000000   -3.76000000    0.00016444    0.00000000
    0.40000000   -3.76000000    0.00013228    0.00000000
    0.48000000   -3.76000000    0.00010506    0.00000000
    0.56000000   -3.76000000    0.00008238    0.00000000
    0.64000000   -3.76000000    0.00006377    0.00000000
    0.72000000   -3.76000000    0.00004874    0.00000000
    0.80000000   -3.76000000    0.00003678    0.00000000
    0.88000000   -3.76000000    0.00002740    0.00000000
    0.96000000   -3.76000000    0.00002015    0.00000000
    1.04000000   -3.76000000    0.00001463    0.00000000
    1.12000000   -3.76000000    0.00001049    0.00000000
    1.20000000   -3.76000000    0.00000743    0.00000000
    1.28000000   -3.76000000    0.00000519    0.00000000
    1.36000000   -3.76000000    0.00000358    0.00000000
    1.44000000   -3.76000000    0.00000244    0.00000000
    1.52000000   -3.76000000    0.00000164    0.00000000
    1.60000000   -3.76000000    0.00000109    0.00000000
    1.68000000   -3.76000000    0.00000071    0.00000000
    1.76000000   -3.76000000    0.00000046    0.00000000
    1.84000000   -3.76000000    0.00000030    0.00000000
    1.92000000   -3.76000000    0.00000019    0.00000000
    2.00000000   -3.76000000    0.00000012    0.00000000
    2.08000000   -3.76000000    0.00000007    0.00000000
    2.16000000   -3.76000000    0.00000004    0.00000000
    2.24000000   -3.76000000    0.00000003    0.00000000
    2.32000000   -3.76000000    0.00000002    0.00000000
    2.40000000   -3.76000000    0.00000001    0.00000000
    2.48000000   -3.76000000    0.00000001    0.00000000
    2.56000000   -3.76000000    0.00000000    0.00000000
    2.64000000   -3.76000000    0.00000000    0.00000000
    2.72000000   -3.76000000    0.00000000    0.00000000
    2.80000000   -3.76000000    0.00000000    0.00000000
    2.88000000   -3.76000000    0.00000000    0.00000000
    2.96000000   -3.76000000    0.00000000    0.00000000
    3.04000000   -3.76000000    0.00000000    0.00000000
    3.12000000   -3.76000000    0.00000000    0.00000000
    3.20000000   -3.76000000    0.00000000    0.00000000
    3.28000000   -3.76000000    0.00000000    0.00000000
    3.36000000   -3.76000000    0.00000000    0.00000000
    3.44000000   -3.76000000    0.00000000    0.00000000
    3.52000000   -3.76000000    0.00000000    0.00000000
    3.60000000   -3.76000000    0.00000000    0.00000000
    3.68000000   -3.76000000    0.00000000    0.00000000
    3.76000000   -3.76000000    0.00000000    0.00000000
    3.84000000   -3.76000000    0.00000000    0.00000000
    3.92000000   -3.76000000    0.00000000    0.00000000
    4.00000000   -3.76000000    0.00000000    0.00000000
   -4.00000000   -3.68000000    0.00000018    0.00000000
   -3.92000000   -3.68000000    0.00000029    0.00000000
   -3.84000000   -3.68000000    0.00000046    0.00000000
   -3.76000000   -3.68000000    0.00000071    0.00000000
   -3.68000000   -3.68000000    0.00000110    0.00000000
   -3.60000000   -3.68000000    0.00000168    0.00000000
   -3.52000000   -3.68000000    0.00000253    0.00000000
   -3.44000000   -3.68000000    0.00000377    0.00000000
   -3.36000000   -3.68000000    0.00000553    0.00000000
   -3.28000000   -3.68000000    0.00000802    0.00000000
   -3.20000000   -3.68000000    0.00001147    0.00000000
   -3.12000000   -3.68000000    0.00001621    0.00000000
   -3.04000000   -3.68000000    0.00002261    0.00000000
   -2.96000000   -3.68000000    0.00003114    0.00000000
   -2.88000000   -3.68000000    0.00004234    0.00000000
   -2.80000000   -3.68000000    0.00005683    0.00000000
   -2.72000000   -3.68000000    0.00007532    0.00000000
   -2.64000000   -3.68000000    0.00009855    0.00000000
   -2.56000000   -3.68000000    0.00012730    0.00000000
   -2.48000000   -3.68000000    0.00016235    0.00000000
   -2.40000000   -3.68000000    0.00020441    0.00000000
   -2.32000000   -3.68000000    0.00025410    0.00000000
   -2.24000000   -3.68000000    0.00031186    0.00000000
   -2.16000000   -3.68000000    0.00037787    0.00000000
   -2.08000000   -3.68000000    0.00045203    0.00000000
   -2.00000000   -3.68000000    0.00053386    0.00000000
   -1.92000000   -3.68000000    0.00062250    0.00000000
   -1.84000000   -3.68000000    0.00071662    0.00000000
   -1.76000000   -3.68000000    0.00081447    0.00000000
   -1.68000000   -3.68000000    0.00091392    0.00000000
   -1.60000000   -3.68000000    0.00101246    0.00000000
   -1.52000000   -3.68000000    0.00110737    0.00000000
   -1.44000000   -3.68000000    0.00119576    0.00000000
   -1.36000000   -3.68000000    0.00127479    0.00000000
   -1.28000000   -3.68000000    0.00134176    0.00000000
   -1.20000000   -3.68000000    0.00139429    0.00000000
   -1.12000000   -3.68000000    0.00143044    0.00000000
   -1.04000000   -3.68000000    0.00144887    0.00000000
   -0.96000000   -3.68000000    0.00144887    0.00000000
   -0.88000000   -3.68000000    0.00143044    0.00000000
   -0.80000000   -3.68000000    0.00139429    0.00000000
   -0.72000000   -3.68000000    0.00134176    0.00000000
   -0.64000000   -3.68000000    0.00127479    0.00000000
   -0.56000000   -3.68000000    0.00119576    0.00000000
   -0.48000000   -3.68000000    0.00110737    0.00000000
   -0.40000000   -3.68000000    0.00101246    0.00000000
   -0.32000000   -3.68000000    0.00091392    0.00000000
   -0.24000000   -3.68000000    0.00081447    0.00000000
   -0.16000000   -3.68000000    0.00071662    0.00000000
   -0.08000000   -3.68000000    0.00062250    0.00000000
    0.00000000   -3.68000000    0.00053386    0.00000000
    0.08000000   -3.68000000    0.00045203    0.00000000
    0.16000000   -3.68000000    0.00037787    0.00000000
    0.24000000   -3.68000000    0.00031186    0.00000000
    0.32000000   -3.68000000    0.00025410    0.00000000
    0.40000000   -3.68000000    0.00020441    0.00000000
    0.48000000   -3.68000000    0.00016235    0.00000000
    0.56000000   -3.68000000    0.00012730    0.00000000
    0.64000000   -3.68000000    0.00009855    0.00000000
    0.72000000   -3.68000000    0.00007532    0.00000000
    0.80000000   -3.68000000    0.00005683    0.00000000
    0.88000000   -3.68000000    0.00004234    0.00000000
    0.96000000   -3.68000000    0.00003114    0.00000000
    1.04000000   -3.68000000    0.00002261    0.00000000
    1.12000000   -3.68000000    0.00001621    0.00000000
    1.20000000   -3.68000000    0.00001147    0.00000000
    1.28000000   -3.68000000    0.00000802    0.00000000
    1.36000000   -3.68000000    0.00000553    0.00000000
    1.44000000   -3.68000000    0.00000377    0.00000000
    1.52000000   -3.68000000    0.00000253    0.00000000
    1.60000000   -3.68000000    0.00000168    0.00000000
    1.68000000   -3.68000000    0.00000110    0.00000000
    1.76000000   -3.68000000    0.00000071    0.00000000
    1.84000000   -3.68000000    0.00000046    0.00000000
    1.92000000   -3.68000000    0.00000029    0.00000000
    2.00000000   -3.68000000    0.00000018    0.00000000
    2.08000000   -3.68000000    0.00000011    0.00000000
    2.16000000   -3.68000000    0.00000007    0.00000000
    2.24000000   -3.68000000    0.00000004    0.00000000
    2.32000000   -3.68000000    0.00000002    0.00000000
    2.40000000   -3.68000000    0.00000001    0.00000000
    2.48000000   -3.68000000    0.00000001    0.00000000
    2.56000000   -3.68000000    0.00000000    0.00000000
    2.64000000   -3.68000000    0.00000000    0.00000000
    2.72000000   -3.68000000    0.00000000    0.00000000
    2.80000000   -3.68000000    0.00000000    0.00000000
    2.88000000   -3.68000000    0.00000000    0.00000000
    2.96000000   -3.68000000    0.00000000    0.00000000
    3.04000000   -3.68000000    0.00000000    0.00000000
    3.12000000   -3.68000000    0.00000000    0.00000000
    3.20000000   -3.68000000    0.00000000    0.00000000
    3.28000000   -3.68000000    0.00000000    0.00000000
    3.36000000   -3.68000000    0.00000000    0.00000000
    3.44000000   -3.68000000    0.00000000    0.00000000
    3.52000000   -3.68000000    0.00000000    0.00000000
    3.60000000   -3.68000000    0.00000000    0.00000000
    3.68000000   -3.68000000    0.00000000    0.00000000
    3.76000000   -3.68000000    0.00000000    0.00000000
    3.84000000   -3.68000000    0.00000000    0.00000000
    3.92000000   -3.68000000    0.00000000    0.00000000
    4.00000000   -3.68000000    0.00000000    0.00000000
   -4.00000000   -3.60000000    0.00000027    0.00000000
   -3.92000000   -3.60000000    0.00000044    0.00000000
   -3.84000000   -3.60000000    0.00000070    0.00000000
   -3.76000000   -3.60000000    0.00000109    0.00000000
   -3.68000000   -3.60000000    0.00000168    0.00000000
   -3.60000000   -3.60000000    0.00000257    0.00000000
   -3.52000000   -3.60000000    0.00000387    0.00000000
   -3.44000000   -3.60000000    0.00000575    0.00000000
   -3.36000000   -3.60000000    0.00000844    0.00000000
   -3.28000000   -3.60000000    0.00001223    0.00000000
   -3.20000000   -3.60000000    0.00001751    0.00000000
   -3.12000000   -3.60000000    0.00002473    0.00000000
   -3.04000000   -3.60000000    0.00003450    0.00000000
   -2.96000000   -3.60000000    0.00004751    0.00000000
   -2.88000000   -3.60000000    0.00006460    0.00000000
   -2.80000000   -3.60000000    0.00008671    0.00000000
   -2.72000000   -3.60000000    0.00011491    0.00000000
   -2.64000000   -3.60000000    0.00015035    0.00000000
   -2.56000000   -3.60000000    0.00019421    0.00000000